
     Program DYNMAT v.7.3 starts on  1Apr2026 at 16:41: 7 

     This program is part of the open-source Quantum ESPRESSO suite
     for quantum simulation of materials; please cite
         "P. Giannozzi et al., J. Phys.:Condens. Matter 21 395502 (2009);
         "P. Giannozzi et al., J. Phys.:Condens. Matter 29 465901 (2017);
         "P. Giannozzi et al., J. Chem. Phys. 152 154105 (2020);
          URL http://www.quantum-espresso.org", 
     in publications or presentations arising from this work. More details at
     http://www.quantum-espresso.org/quote

     Parallel version (MPI & OpenMP), running on      32 processor cores
     Number of MPI processes:                 4
     Threads/MPI process:                     8

     MPI processes distributed on     1 nodes
     R & G space division:  proc/nbgrp/npool/nimage =       4
     40711 MiB available memory on the printing compute node when the environment starts
 

     Reading Dynamical Matrix from file pto.gamma.dyn
     ...Force constants read
     ...epsilon and Z* read

     Polarizability (A^3 units)
     multiply by 0.331503 for Clausius-Mossotti correction
        31.321869    0.000000    0.000000
         0.000000   31.321869    0.000000
         0.000000    0.000000   28.522019

     IR activities are in (D/A)^2/amu units

# mode   [cm-1]    [THz]      IR
    1     -0.00   -0.0000    0.0000
    2      0.00    0.0000    0.0000
    3      0.00    0.0000    0.0000
    4     89.73    2.6899   11.5280
    5     89.73    2.6899   11.5280
    6    195.23    5.8529    1.1367
    7    209.19    6.2713   45.3435
    8    209.19    6.2713   45.3435
    9    274.53    8.2301    0.3726
   10    274.53    8.2301    0.3726
   11    275.99    8.2738    0.0000
   12    445.72   13.3625    8.3444
   13    498.60   14.9475   15.4198
   14    498.60   14.9475   15.4198
   15    797.40   23.9053   44.6593
 
     DYNMAT       :      0.00s CPU      0.01s WALL

 
   This run was terminated on:  16:41: 7   1Apr2026            

=------------------------------------------------------------------------------=
   JOB DONE.
=------------------------------------------------------------------------------=
