CRYSTAL
PRIMVEC
       3.866001      0.000000      0.000000
      -0.000000      3.866001      0.000000
       0.000000      0.000000      4.223402
PRIMCOORD   14
      5   1
   Ti     1.93300   1.93300   1.96486   0.00629   0.00028  -0.00000
   Pb     0.00000   0.00000   3.90963   0.00046   0.00002  -0.00000
   O      1.93300   1.93300   0.19819   0.01812   0.00081  -0.00000
   O      1.93300   0.00000   2.32738   0.04448  -0.00391   0.00000
   O      0.00000   1.93300   2.32738  -0.08737   0.00199   0.00000
