ANIMSTEPS   15
CRYSTAL
PRIMVEC
    3.866000954    0.000000000    0.000000000
   -0.000000000    3.866000954    0.000000000
    0.000000000    0.000000000    4.223401743
PRIMCOORD    1
      5   1
   Ti     1.93300   1.93300   1.96486  -0.00079  -0.04471  -0.00031
   Pb     0.00000   0.00000   3.90963  -0.00079  -0.04471  -0.00031
   O      1.93300   1.93300   0.19819  -0.00079  -0.04471  -0.00031
   O      1.93300   0.00000   2.32738  -0.00079  -0.04471  -0.00031
   O      0.00000   1.93300   2.32738  -0.00079  -0.04471  -0.00031
PRIMCOORD    2
      5   1
   Ti     1.93300   1.93300   1.96486   0.01069  -0.00049   0.04342
   Pb     0.00000   0.00000   3.90963   0.01069  -0.00049   0.04342
   O      1.93300   1.93300   0.19819   0.01069  -0.00049   0.04342
   O      1.93300   0.00000   2.32738   0.01069  -0.00049   0.04342
   O      0.00000   1.93300   2.32738   0.01069  -0.00049   0.04342
PRIMCOORD    3
      5   1
   Ti     1.93300   1.93300   1.96486  -0.04342   0.00069   0.01070
   Pb     0.00000   0.00000   3.90963  -0.04342   0.00069   0.01070
   O      1.93300   1.93300   0.19819  -0.04342   0.00069   0.01070
   O      1.93300   0.00000   2.32738  -0.04342   0.00069   0.01070
   O      0.00000   1.93300   2.32738  -0.04342   0.00069   0.01070
PRIMCOORD    4
      5   1
   Ti     1.93300   1.93300   1.96486  -0.00058   0.03341   0.00000
   Pb     0.00000   0.00000   3.90963   0.00035  -0.01996  -0.00000
   O      1.93300   1.93300   0.19819  -0.00104   0.05956   0.00000
   O      1.93300   0.00000   2.32738  -0.00093   0.04546   0.00000
   O      0.00000   1.93300   2.32738  -0.00079   0.05356   0.00000
PRIMCOORD    5
      5   1
   Ti     1.93300   1.93300   1.96486   0.03341   0.00058   0.00000
   Pb     0.00000   0.00000   3.90963  -0.01996  -0.00035   0.00000
   O      1.93300   1.93300   0.19819   0.05956   0.00104   0.00000
   O      1.93300   0.00000   2.32738   0.05356   0.00079   0.00000
   O      0.00000   1.93300   2.32738   0.04546   0.00093   0.00000
PRIMCOORD    6
      5   1
   Ti     1.93300   1.93300   1.96486   0.00000   0.00000  -0.06323
   Pb     0.00000   0.00000   3.90963  -0.00000  -0.00000   0.02427
   O      1.93300   1.93300   0.19819   0.00000   0.00000  -0.05306
   O      1.93300   0.00000   2.32738  -0.00000  -0.00000  -0.03604
   O      0.00000   1.93300   2.32738  -0.00000  -0.00000  -0.03604
PRIMCOORD    7
      5   1
   Ti     1.93300   1.93300   1.96486   0.03899  -0.04157  -0.00000
   Pb     0.00000   0.00000   3.90963  -0.00239   0.00255   0.00000
   O      1.93300   1.93300   0.19819  -0.01523   0.01624  -0.00000
   O      1.93300   0.00000   2.32738  -0.05005   0.02175  -0.00000
   O      0.00000   1.93300   2.32738  -0.02040   0.05337  -0.00000
PRIMCOORD    8
      5   1
   Ti     1.93300   1.93300   1.96486   0.04157   0.03899   0.00000
   Pb     0.00000   0.00000   3.90963  -0.00255  -0.00239  -0.00000
   O      1.93300   1.93300   0.19819  -0.01624  -0.01523   0.00000
   O      1.93300   0.00000   2.32738  -0.05337  -0.02040   0.00000
   O      0.00000   1.93300   2.32738  -0.02175  -0.05005   0.00000
PRIMCOORD    9
      5   1
   Ti     1.93300   1.93300   1.96486   0.00973   0.00860  -0.00000
   Pb     0.00000   0.00000   3.90963  -0.00109  -0.00096   0.00000
   O      1.93300   1.93300   0.19819  -0.06271  -0.05541  -0.00000
   O      1.93300   0.00000   2.32738   0.03886   0.00777  -0.00000
   O      0.00000   1.93300   2.32738   0.00880   0.03433   0.00000
PRIMCOORD   10
      5   1
   Ti     1.93300   1.93300   1.96486   0.00860  -0.00973   0.00000
   Pb     0.00000   0.00000   3.90963  -0.00096   0.00109  -0.00000
   O      1.93300   1.93300   0.19819  -0.05541   0.06271   0.00000
   O      1.93300   0.00000   2.32738   0.03433  -0.00880   0.00000
   O      0.00000   1.93300   2.32738   0.00777  -0.03886  -0.00000
PRIMCOORD   11
      5   1
   Ti     1.93300   1.93300   1.96486  -0.00000   0.00000   0.00000
   Pb     0.00000   0.00000   3.90963   0.00000  -0.00000  -0.00000
   O      1.93300   1.93300   0.19819   0.00000  -0.00000   0.00000
   O      1.93300   0.00000   2.32738  -0.00000   0.00000   0.07071
   O      0.00000   1.93300   2.32738  -0.00000   0.00000  -0.07071
PRIMCOORD   12
      5   1
   Ti     1.93300   1.93300   1.96486  -0.00000  -0.00000  -0.02060
   Pb     0.00000   0.00000   3.90963  -0.00000  -0.00000  -0.00285
   O      1.93300   1.93300   0.19819  -0.00000  -0.00000  -0.03216
   O      1.93300   0.00000   2.32738  -0.00000   0.00000   0.06532
   O      0.00000   1.93300   2.32738   0.00000   0.00000   0.06532
PRIMCOORD   13
      5   1
   Ti     1.93300   1.93300   1.96486   0.00028  -0.00629  -0.00000
   Pb     0.00000   0.00000   3.90963   0.00002  -0.00046   0.00000
   O      1.93300   1.93300   0.19819   0.00081  -0.01812   0.00000
   O      1.93300   0.00000   2.32738   0.00199   0.08737  -0.00000
   O      0.00000   1.93300   2.32738  -0.00391  -0.04448   0.00000
PRIMCOORD   14
      5   1
   Ti     1.93300   1.93300   1.96486   0.00629   0.00028  -0.00000
   Pb     0.00000   0.00000   3.90963   0.00046   0.00002  -0.00000
   O      1.93300   1.93300   0.19819   0.01812   0.00081  -0.00000
   O      1.93300   0.00000   2.32738   0.04448  -0.00391   0.00000
   O      0.00000   1.93300   2.32738  -0.08737   0.00199   0.00000
PRIMCOORD   15
      5   1
   Ti     1.93300   1.93300   1.96486  -0.00000   0.00000  -0.03151
   Pb     0.00000   0.00000   3.90963  -0.00000   0.00000  -0.00123
   O      1.93300   1.93300   0.19819  -0.00000   0.00000   0.09422
   O      1.93300   0.00000   2.32738  -0.00000  -0.00000   0.00799
   O      0.00000   1.93300   2.32738   0.00000   0.00000   0.00799
