[Molden Format]
[FREQ]
    0.00
    0.00
    0.00
   89.73
   89.73
  195.23
  209.19
  209.19
  274.53
  274.53
  275.99
  445.72
  498.60
  498.60
  797.40
[FR-COORD]
   Ti          3.65284        3.65284        3.71304
   Pb          0.00000        0.00000        7.38813
   O           3.65284        3.65284        0.37452
   O           3.65284        0.00000        4.39812
   O           0.00000        3.65284        4.39812
[FR-NORM-COORD]
 vibration     1
  -0.00790  -0.44713  -0.00309
  -0.00790  -0.44713  -0.00309
  -0.00790  -0.44713  -0.00309
  -0.00790  -0.44713  -0.00309
  -0.00790  -0.44713  -0.00309
 vibration     2
   0.10693  -0.00489   0.43421
   0.10693  -0.00489   0.43421
   0.10693  -0.00489   0.43421
   0.10693  -0.00489   0.43421
   0.10693  -0.00489   0.43421
 vibration     3
  -0.43417   0.00693   0.10700
  -0.43417   0.00693   0.10700
  -0.43417   0.00693   0.10700
  -0.43417   0.00693   0.10700
  -0.43417   0.00693   0.10700
 vibration     4
  -0.00583   0.33409   0.00000
   0.00348  -0.19963  -0.00000
  -0.01039   0.59556   0.00000
  -0.00935   0.45458   0.00000
  -0.00793   0.53562   0.00000
 vibration     5
   0.33409   0.00583   0.00000
  -0.19963  -0.00348   0.00000
   0.59556   0.01039   0.00000
   0.53562   0.00793   0.00000
   0.45458   0.00935   0.00000
 vibration     6
   0.00000   0.00000  -0.63228
  -0.00000  -0.00000   0.24270
   0.00000   0.00000  -0.53057
  -0.00000  -0.00000  -0.36042
  -0.00000  -0.00000  -0.36042
 vibration     7
   0.38992  -0.41574  -0.00000
  -0.02391   0.02550   0.00000
  -0.15235   0.16243  -0.00000
  -0.50055   0.21752  -0.00000
  -0.20401   0.53369  -0.00000
 vibration     8
   0.41574   0.38992   0.00000
  -0.02550  -0.02391  -0.00000
  -0.16243  -0.15235   0.00000
  -0.53369  -0.20401   0.00000
  -0.21752  -0.50055   0.00000
 vibration     9
   0.09733   0.08599  -0.00000
  -0.01086  -0.00959   0.00000
  -0.62714  -0.55406  -0.00000
   0.38858   0.07774  -0.00000
   0.08800   0.34330   0.00000
 vibration    10
   0.08599  -0.09733   0.00000
  -0.00959   0.01086  -0.00000
  -0.55406   0.62714   0.00000
   0.34330  -0.08800   0.00000
   0.07774  -0.38858  -0.00000
 vibration    11
  -0.00000   0.00000   0.00000
   0.00000  -0.00000  -0.00000
   0.00000  -0.00000   0.00000
  -0.00000   0.00000   0.70711
  -0.00000   0.00000  -0.70711
 vibration    12
  -0.00000  -0.00000  -0.20597
  -0.00000  -0.00000  -0.02845
  -0.00000  -0.00000  -0.32164
  -0.00000   0.00000   0.65319
   0.00000   0.00000   0.65319
 vibration    13
   0.00282  -0.06293  -0.00000
   0.00021  -0.00459   0.00000
   0.00811  -0.18118   0.00000
   0.01992   0.87371  -0.00000
  -0.03912  -0.44478   0.00000
 vibration    14
   0.06293   0.00282  -0.00000
   0.00459   0.00021  -0.00000
   0.18118   0.00811  -0.00000
   0.44478  -0.03912   0.00000
  -0.87371   0.01992   0.00000
 vibration    15
  -0.00000   0.00000  -0.31512
  -0.00000   0.00000  -0.01229
  -0.00000   0.00000   0.94223
  -0.00000  -0.00000   0.07987
   0.00000   0.00000   0.07987
