CRYSTAL
PRIMVEC
       3.866001      0.000000      0.000000
      -0.000000      3.866001      0.000000
       0.000000      0.000000      4.223402
PRIMCOORD    4
      5   1
   Ti     1.93300   1.93300   1.96486  -0.00058   0.03341   0.00000
   Pb     0.00000   0.00000   3.90963   0.00035  -0.01996  -0.00000
   O      1.93300   1.93300   0.19819  -0.00104   0.05956   0.00000
   O      1.93300   0.00000   2.32738  -0.00093   0.04546   0.00000
   O      0.00000   1.93300   2.32738  -0.00079   0.05356   0.00000
