CRYSTAL
PRIMVEC
       3.866001      0.000000      0.000000
      -0.000000      3.866001      0.000000
       0.000000      0.000000      4.223402
PRIMCOORD    9
      5   1
   Ti     1.93300   1.93300   1.96486   0.00973   0.00860  -0.00000
   Pb     0.00000   0.00000   3.90963  -0.00109  -0.00096   0.00000
   O      1.93300   1.93300   0.19819  -0.06271  -0.05541  -0.00000
   O      1.93300   0.00000   2.32738   0.03886   0.00777  -0.00000
   O      0.00000   1.93300   2.32738   0.00880   0.03433   0.00000
