CRYSTAL
PRIMVEC
       3.866001      0.000000      0.000000
      -0.000000      3.866001      0.000000
       0.000000      0.000000      4.223402
PRIMCOORD    2
      5   1
   Ti     1.93300   1.93300   1.96486   0.01069  -0.00049   0.04342
   Pb     0.00000   0.00000   3.90963   0.01069  -0.00049   0.04342
   O      1.93300   1.93300   0.19819   0.01069  -0.00049   0.04342
   O      1.93300   0.00000   2.32738   0.01069  -0.00049   0.04342
   O      0.00000   1.93300   2.32738   0.01069  -0.00049   0.04342
