CRYSTAL
PRIMVEC
    3.866000954    0.000000000    0.000000000
   -0.000000000    3.866000954    0.000000000
    0.000000000    0.000000000    4.223401743
PRIMCOORD    1
      5   1
   Ti     1.93300   1.93300   1.96486  -0.00079  -0.04471  -0.00031
   Pb     0.00000   0.00000   3.90963  -0.00079  -0.04471  -0.00031
   O      1.93300   1.93300   0.19819  -0.00079  -0.04471  -0.00031
   O      1.93300   0.00000   2.32738  -0.00079  -0.04471  -0.00031
   O      0.00000   1.93300   2.32738  -0.00079  -0.04471  -0.00031
