ANIMSTEPS   15
CRYSTAL
PRIMVEC
    3.866000954    0.000000000    0.000000000
   -0.000000000    3.866000954    0.000000000
    0.000000000    0.000000000    4.223401743
PRIMCOORD    1
      5   1
   Ti     1.93300   1.93300   1.96486  -0.04139   0.00573  -0.01593
   Pb     0.00000   0.00000   3.90963  -0.04139   0.00573  -0.01593
   O      1.93300   1.93300   0.19819  -0.04139   0.00573  -0.01593
   O      1.93300   0.00000   2.32738  -0.04139   0.00573  -0.01593
   O      0.00000   1.93300   2.32738  -0.04139   0.00573  -0.01593
PRIMCOORD    2
      5   1
   Ti     1.93300   1.93300   1.96486  -0.00256  -0.04371  -0.00908
   Pb     0.00000   0.00000   3.90963  -0.00256  -0.04371  -0.00908
   O      1.93300   1.93300   0.19819  -0.00256  -0.04371  -0.00908
   O      1.93300   0.00000   2.32738  -0.00256  -0.04371  -0.00908
   O      0.00000   1.93300   2.32738  -0.00256  -0.04371  -0.00908
PRIMCOORD    3
      5   1
   Ti     1.93300   1.93300   1.96486   0.01673   0.00749  -0.04079
   Pb     0.00000   0.00000   3.90963   0.01673   0.00749  -0.04079
   O      1.93300   1.93300   0.19819   0.01673   0.00749  -0.04079
   O      1.93300   0.00000   2.32738   0.01673   0.00749  -0.04079
   O      0.00000   1.93300   2.32738   0.01673   0.00749  -0.04079
PRIMCOORD    4
      5   1
   Ti     1.93300   1.93300   1.96486   0.00000   0.03341   0.00000
   Pb     0.00000   0.00000   3.90963  -0.00000  -0.01997   0.00000
   O      1.93300   1.93300   0.19819   0.00000   0.05957  -0.00000
   O      1.93300   0.00000   2.32738   0.00000   0.04546   0.00000
   O      0.00000   1.93300   2.32738   0.00000   0.05357  -0.00000
PRIMCOORD    5
      5   1
   Ti     1.93300   1.93300   1.96486  -0.06643   0.00000   0.00000
   Pb     0.00000   0.00000   3.90963   0.02440  -0.00000  -0.00000
   O      1.93300   1.93300   0.19819  -0.05534   0.00000   0.00000
   O      1.93300   0.00000   2.32738  -0.02855   0.00000   0.00000
   O      0.00000   1.93300   2.32738  -0.03337   0.00000   0.00000
PRIMCOORD    6
      5   1
   Ti     1.93300   1.93300   1.96486   0.00000   0.00000   0.04127
   Pb     0.00000   0.00000   3.90963  -0.00000  -0.00000  -0.02138
   O      1.93300   1.93300   0.19819   0.00000   0.00000   0.05235
   O      1.93300   0.00000   2.32738   0.00000   0.00000   0.05049
   O      0.00000   1.93300   2.32738   0.00000  -0.00000   0.05049
PRIMCOORD    7
      5   1
   Ti     1.93300   1.93300   1.96486  -0.00000   0.05700  -0.00000
   Pb     0.00000   0.00000   3.90963  -0.00000  -0.00350   0.00000
   O      1.93300   1.93300   0.19819   0.00000  -0.02227  -0.00000
   O      1.93300   0.00000   2.32738  -0.00000  -0.02982  -0.00000
   O      0.00000   1.93300   2.32738  -0.00000  -0.07317  -0.00000
PRIMCOORD    8
      5   1
   Ti     1.93300   1.93300   1.96486   0.00906   0.00000   0.00000
   Pb     0.00000   0.00000   3.90963  -0.00151  -0.00000   0.00000
   O      1.93300   1.93300   0.19819  -0.07956  -0.00000   0.00000
   O      1.93300   0.00000   2.32738   0.05827   0.00000  -0.00000
   O      0.00000   1.93300   2.32738   0.01380   0.00000   0.00000
PRIMCOORD    9
      5   1
   Ti     1.93300   1.93300   1.96486  -0.00000   0.01299   0.00000
   Pb     0.00000   0.00000   3.90963   0.00000  -0.00145  -0.00000
   O      1.93300   1.93300   0.19819   0.00000  -0.08368   0.00000
   O      1.93300   0.00000   2.32738  -0.00000   0.01174   0.00000
   O      0.00000   1.93300   2.32738  -0.00000   0.05185  -0.00000
PRIMCOORD   10
      5   1
   Ti     1.93300   1.93300   1.96486   0.00000  -0.00000  -0.00000
   Pb     0.00000   0.00000   3.90963  -0.00000   0.00000   0.00000
   O      1.93300   1.93300   0.19819  -0.00000   0.00000  -0.00000
   O      1.93300   0.00000   2.32738   0.00000  -0.00000   0.07071
   O      0.00000   1.93300   2.32738   0.00000  -0.00000  -0.07071
PRIMCOORD   11
      5   1
   Ti     1.93300   1.93300   1.96486   0.00000  -0.00000   0.04287
   Pb     0.00000   0.00000   3.90963  -0.00000  -0.00000  -0.00124
   O      1.93300   1.93300   0.19819   0.00000  -0.00000   0.01403
   O      1.93300   0.00000   2.32738   0.00000   0.00000  -0.06310
   O      0.00000   1.93300   2.32738  -0.00000   0.00000  -0.06310
PRIMCOORD   12
      5   1
   Ti     1.93300   1.93300   1.96486  -0.02048   0.00000  -0.00000
   Pb     0.00000   0.00000   3.90963  -0.00190   0.00000   0.00000
   O      1.93300   1.93300   0.19819   0.04462   0.00000  -0.00000
   O      1.93300   0.00000   2.32738   0.07867  -0.00000   0.00000
   O      0.00000   1.93300   2.32738  -0.03738   0.00000   0.00000
PRIMCOORD   13
      5   1
   Ti     1.93300   1.93300   1.96486   0.00000   0.00630   0.00000
   Pb     0.00000   0.00000   3.90963   0.00000   0.00046   0.00000
   O      1.93300   1.93300   0.19819  -0.00000   0.01814  -0.00000
   O      1.93300   0.00000   2.32738  -0.00000  -0.08746  -0.00000
   O      0.00000   1.93300   2.32738   0.00000   0.04452  -0.00000
PRIMCOORD   14
      5   1
   Ti     1.93300   1.93300   1.96486   0.00000  -0.00000   0.02531
   Pb     0.00000   0.00000   3.90963   0.00000  -0.00000  -0.00094
   O      1.93300   1.93300   0.19819  -0.00000  -0.00000  -0.09427
   O      1.93300   0.00000   2.32738  -0.00000   0.00000   0.01536
   O      0.00000   1.93300   2.32738  -0.00000  -0.00000   0.01536
PRIMCOORD   15
      5   1
   Ti     1.93300   1.93300   1.96486   0.02737  -0.00000  -0.00000
   Pb     0.00000   0.00000   3.90963   0.00320  -0.00000   0.00000
   O      1.93300   1.93300   0.19819  -0.01697  -0.00000   0.00000
   O      1.93300   0.00000   2.32738  -0.01261   0.00000  -0.00000
   O      0.00000   1.93300   2.32738  -0.09377   0.00000  -0.00000
