[Molden Format]
[FREQ]
    0.00
    0.00
    0.00
   89.73
  119.82
  152.90
  209.19
  274.01
  274.53
  275.99
  360.70
  417.24
  498.60
  667.25
  671.99
[FR-COORD]
   Ti          3.65284        3.65284        3.71304
   Pb          0.00000        0.00000        7.38813
   O           3.65284        3.65284        0.37452
   O           3.65284        0.00000        4.39812
   O           0.00000        3.65284        4.39812
[FR-NORM-COORD]
 vibration     1
  -0.41393   0.05731  -0.15929
  -0.41393   0.05731  -0.15929
  -0.41393   0.05731  -0.15929
  -0.41393   0.05731  -0.15929
  -0.41393   0.05731  -0.15929
 vibration     2
  -0.02558  -0.43715  -0.09081
  -0.02558  -0.43715  -0.09081
  -0.02558  -0.43715  -0.09081
  -0.02558  -0.43715  -0.09081
  -0.02558  -0.43715  -0.09081
 vibration     3
   0.16735   0.07494  -0.40790
   0.16735   0.07494  -0.40790
   0.16735   0.07494  -0.40790
   0.16735   0.07494  -0.40790
   0.16735   0.07494  -0.40790
 vibration     4
   0.00000   0.33414   0.00000
  -0.00000  -0.19966   0.00000
   0.00000   0.59565  -0.00000
   0.00000   0.45465   0.00000
   0.00000   0.53570  -0.00000
 vibration     5
  -0.66428   0.00000   0.00000
   0.24401  -0.00000  -0.00000
  -0.55345   0.00000   0.00000
  -0.28550   0.00000   0.00000
  -0.33374   0.00000   0.00000
 vibration     6
   0.00000   0.00000   0.41275
  -0.00000  -0.00000  -0.21375
   0.00000   0.00000   0.52354
   0.00000   0.00000   0.50490
   0.00000  -0.00000   0.50490
 vibration     7
  -0.00000   0.56998  -0.00000
  -0.00000  -0.03496   0.00000
   0.00000  -0.22270  -0.00000
  -0.00000  -0.29822  -0.00000
  -0.00000  -0.73169  -0.00000
 vibration     8
   0.09058   0.00000   0.00000
  -0.01515  -0.00000   0.00000
  -0.79560  -0.00000   0.00000
   0.58270   0.00000  -0.00000
   0.13804   0.00000   0.00000
 vibration     9
  -0.00000   0.12988   0.00000
   0.00000  -0.01449  -0.00000
   0.00000  -0.83683   0.00000
  -0.00000   0.11742   0.00000
  -0.00000   0.51850  -0.00000
 vibration    10
   0.00000  -0.00000  -0.00000
  -0.00000   0.00000   0.00000
  -0.00000   0.00000  -0.00000
   0.00000  -0.00000   0.70711
   0.00000  -0.00000  -0.70711
 vibration    11
   0.00000  -0.00000   0.42869
  -0.00000  -0.00000  -0.01242
   0.00000  -0.00000   0.14029
   0.00000   0.00000  -0.63103
  -0.00000   0.00000  -0.63103
 vibration    12
  -0.20477   0.00000  -0.00000
  -0.01903   0.00000   0.00000
   0.44624   0.00000  -0.00000
   0.78667  -0.00000   0.00000
  -0.37379   0.00000   0.00000
 vibration    13
   0.00000   0.06299   0.00000
   0.00000   0.00460   0.00000
  -0.00000   0.18137  -0.00000
  -0.00000  -0.87458  -0.00000
   0.00000   0.44523  -0.00000
 vibration    14
   0.00000  -0.00000   0.25305
   0.00000  -0.00000  -0.00938
  -0.00000  -0.00000  -0.94271
  -0.00000   0.00000   0.15357
  -0.00000  -0.00000   0.15357
 vibration    15
   0.27373  -0.00000  -0.00000
   0.03201  -0.00000   0.00000
  -0.16970  -0.00000   0.00000
  -0.12610   0.00000  -0.00000
  -0.93773   0.00000  -0.00000
