CRYSTAL
PRIMVEC
       3.866001      0.000000      0.000000
      -0.000000      3.866001      0.000000
       0.000000      0.000000      4.223402
PRIMCOORD    8
      5   1
   Ti     1.93300   1.93300   1.96486  -0.05654  -0.00723   0.00000
   Pb     0.00000   0.00000   3.90963   0.00347   0.00044  -0.00000
   O      1.93300   1.93300   0.19819   0.02209   0.00282  -0.00000
   O      1.93300   0.00000   2.32738   0.07258   0.00378   0.00000
   O      0.00000   1.93300   2.32738   0.02958   0.00928   0.00000
