CRYSTAL
PRIMVEC
       3.866001      0.000000      0.000000
      -0.000000      3.866001      0.000000
       0.000000      0.000000      4.223402
PRIMCOORD   13
      5   1
   Ti     1.93300   1.93300   1.96486  -0.00114  -0.00620   0.00000
   Pb     0.00000   0.00000   3.90963  -0.00008  -0.00045   0.00000
   O      1.93300   1.93300   0.19819  -0.00327  -0.01784  -0.00000
   O      1.93300   0.00000   2.32738  -0.00802   0.08603  -0.00000
   O      0.00000   1.93300   2.32738   0.01576  -0.04379  -0.00000
