[Molden Format]
[FREQ]
    0.00
    0.00
    0.00
   89.73
   89.73
  152.90
  209.19
  209.19
  274.53
  274.53
  275.99
  360.70
  498.60
  498.60
  667.25
[FR-COORD]
   Ti          3.65284        3.65284        3.71304
   Pb          0.00000        0.00000        7.38813
   O           3.65284        3.65284        0.37452
   O           3.65284        0.00000        4.39812
   O           0.00000        3.65284        4.39812
[FR-NORM-COORD]
 vibration     1
   0.08840   0.01934  -0.43796
   0.08840   0.01934  -0.43796
   0.08840   0.01934  -0.43796
   0.08840   0.01934  -0.43796
   0.08840   0.01934  -0.43796
 vibration     2
   0.39637  -0.19440   0.07142
   0.39637  -0.19440   0.07142
   0.39637  -0.19440   0.07142
   0.39637  -0.19440   0.07142
   0.39637  -0.19440   0.07142
 vibration     3
  -0.18729  -0.40229  -0.05557
  -0.18729  -0.40229  -0.05557
  -0.18729  -0.40229  -0.05557
  -0.18729  -0.40229  -0.05557
  -0.18729  -0.40229  -0.05557
 vibration     4
  -0.32848  -0.06125  -0.00000
   0.19627   0.03660  -0.00000
  -0.58556  -0.10918  -0.00000
  -0.52663  -0.08334  -0.00000
  -0.44695  -0.09819  -0.00000
 vibration     5
   0.06125  -0.32848  -0.00000
  -0.03660   0.19627   0.00000
   0.10918  -0.58556  -0.00000
   0.09819  -0.44695  -0.00000
   0.08334  -0.52663  -0.00000
 vibration     6
  -0.00000   0.00000  -0.41275
   0.00000  -0.00000   0.21375
  -0.00000   0.00000  -0.52354
  -0.00000   0.00000  -0.50490
  -0.00000  -0.00000  -0.50490
 vibration     7
  -0.07227   0.56538   0.00000
   0.00443  -0.03467  -0.00000
   0.02824  -0.22090   0.00000
   0.09278  -0.29581   0.00000
   0.03781  -0.72578   0.00000
 vibration     8
  -0.56538  -0.07227   0.00000
   0.03467   0.00443  -0.00000
   0.22090   0.02824  -0.00000
   0.72578   0.03781   0.00000
   0.29581   0.09278   0.00000
 vibration     9
  -0.12830   0.02016  -0.00000
   0.01432  -0.00225   0.00000
   0.82669  -0.12990  -0.00000
  -0.51222   0.01823   0.00000
  -0.11600   0.08048  -0.00000
 vibration    10
   0.02016   0.12830  -0.00000
  -0.00225  -0.01432   0.00000
  -0.12990  -0.82669  -0.00000
   0.08048   0.11600  -0.00000
   0.01823   0.51222   0.00000
 vibration    11
   0.00000   0.00000  -0.00000
  -0.00000  -0.00000  -0.00000
  -0.00000  -0.00000  -0.00000
   0.00000   0.00000   0.70711
   0.00000   0.00000  -0.70711
 vibration    12
  -0.00000  -0.00000  -0.42869
  -0.00000  -0.00000   0.01242
  -0.00000  -0.00000  -0.14029
  -0.00000   0.00000   0.63103
   0.00000   0.00000   0.63103
 vibration    13
  -0.01135  -0.06196   0.00000
  -0.00083  -0.00452   0.00000
  -0.03268  -0.17840  -0.00000
  -0.08023   0.86027  -0.00000
   0.15759  -0.43794  -0.00000
 vibration    14
   0.06196  -0.01135  -0.00000
   0.00452  -0.00083   0.00000
   0.17840  -0.03268  -0.00000
   0.43794   0.15759   0.00000
  -0.86027  -0.08023   0.00000
 vibration    15
  -0.00000   0.00000   0.25305
  -0.00000   0.00000  -0.00938
  -0.00000   0.00000  -0.94271
  -0.00000  -0.00000   0.15357
   0.00000   0.00000   0.15357
