CRYSTAL
PRIMVEC
       3.866001      0.000000      0.000000
      -0.000000      3.866001      0.000000
       0.000000      0.000000      4.223402
PRIMCOORD    5
      5   1
   Ti     1.93300   1.93300   1.96486   0.00612  -0.03285  -0.00000
   Pb     0.00000   0.00000   3.90963  -0.00366   0.01963   0.00000
   O      1.93300   1.93300   0.19819   0.01092  -0.05856  -0.00000
   O      1.93300   0.00000   2.32738   0.00982  -0.04469  -0.00000
   O      0.00000   1.93300   2.32738   0.00833  -0.05266  -0.00000
