CRYSTAL
PRIMVEC
       3.866001      0.000000      0.000000
      -0.000000      3.866001      0.000000
       0.000000      0.000000      4.223402
PRIMCOORD    9
      5   1
   Ti     1.93300   1.93300   1.96486  -0.01283   0.00202  -0.00000
   Pb     0.00000   0.00000   3.90963   0.00143  -0.00022   0.00000
   O      1.93300   1.93300   0.19819   0.08267  -0.01299  -0.00000
   O      1.93300   0.00000   2.32738  -0.05122   0.00182   0.00000
   O      0.00000   1.93300   2.32738  -0.01160   0.00805  -0.00000
