ANIMSTEPS   15
CRYSTAL
PRIMVEC
    3.866000954    0.000000000    0.000000000
   -0.000000000    3.866000954    0.000000000
    0.000000000    0.000000000    4.223401743
PRIMCOORD    1
      5   1
   Ti     1.93300   1.93300   1.96486   0.00884   0.00193  -0.04380
   Pb     0.00000   0.00000   3.90963   0.00884   0.00193  -0.04380
   O      1.93300   1.93300   0.19819   0.00884   0.00193  -0.04380
   O      1.93300   0.00000   2.32738   0.00884   0.00193  -0.04380
   O      0.00000   1.93300   2.32738   0.00884   0.00193  -0.04380
PRIMCOORD    2
      5   1
   Ti     1.93300   1.93300   1.96486   0.03964  -0.01944   0.00714
   Pb     0.00000   0.00000   3.90963   0.03964  -0.01944   0.00714
   O      1.93300   1.93300   0.19819   0.03964  -0.01944   0.00714
   O      1.93300   0.00000   2.32738   0.03964  -0.01944   0.00714
   O      0.00000   1.93300   2.32738   0.03964  -0.01944   0.00714
PRIMCOORD    3
      5   1
   Ti     1.93300   1.93300   1.96486  -0.01873  -0.04023  -0.00556
   Pb     0.00000   0.00000   3.90963  -0.01873  -0.04023  -0.00556
   O      1.93300   1.93300   0.19819  -0.01873  -0.04023  -0.00556
   O      1.93300   0.00000   2.32738  -0.01873  -0.04023  -0.00556
   O      0.00000   1.93300   2.32738  -0.01873  -0.04023  -0.00556
PRIMCOORD    4
      5   1
   Ti     1.93300   1.93300   1.96486  -0.03285  -0.00612  -0.00000
   Pb     0.00000   0.00000   3.90963   0.01963   0.00366  -0.00000
   O      1.93300   1.93300   0.19819  -0.05856  -0.01092  -0.00000
   O      1.93300   0.00000   2.32738  -0.05266  -0.00833  -0.00000
   O      0.00000   1.93300   2.32738  -0.04469  -0.00982  -0.00000
PRIMCOORD    5
      5   1
   Ti     1.93300   1.93300   1.96486   0.00612  -0.03285  -0.00000
   Pb     0.00000   0.00000   3.90963  -0.00366   0.01963   0.00000
   O      1.93300   1.93300   0.19819   0.01092  -0.05856  -0.00000
   O      1.93300   0.00000   2.32738   0.00982  -0.04469  -0.00000
   O      0.00000   1.93300   2.32738   0.00833  -0.05266  -0.00000
PRIMCOORD    6
      5   1
   Ti     1.93300   1.93300   1.96486  -0.00000   0.00000  -0.04127
   Pb     0.00000   0.00000   3.90963   0.00000  -0.00000   0.02138
   O      1.93300   1.93300   0.19819  -0.00000   0.00000  -0.05235
   O      1.93300   0.00000   2.32738  -0.00000   0.00000  -0.05049
   O      0.00000   1.93300   2.32738  -0.00000  -0.00000  -0.05049
PRIMCOORD    7
      5   1
   Ti     1.93300   1.93300   1.96486  -0.00723   0.05654   0.00000
   Pb     0.00000   0.00000   3.90963   0.00044  -0.00347  -0.00000
   O      1.93300   1.93300   0.19819   0.00282  -0.02209   0.00000
   O      1.93300   0.00000   2.32738   0.00928  -0.02958   0.00000
   O      0.00000   1.93300   2.32738   0.00378  -0.07258   0.00000
PRIMCOORD    8
      5   1
   Ti     1.93300   1.93300   1.96486  -0.05654  -0.00723   0.00000
   Pb     0.00000   0.00000   3.90963   0.00347   0.00044  -0.00000
   O      1.93300   1.93300   0.19819   0.02209   0.00282  -0.00000
   O      1.93300   0.00000   2.32738   0.07258   0.00378   0.00000
   O      0.00000   1.93300   2.32738   0.02958   0.00928   0.00000
PRIMCOORD    9
      5   1
   Ti     1.93300   1.93300   1.96486  -0.01283   0.00202  -0.00000
   Pb     0.00000   0.00000   3.90963   0.00143  -0.00022   0.00000
   O      1.93300   1.93300   0.19819   0.08267  -0.01299  -0.00000
   O      1.93300   0.00000   2.32738  -0.05122   0.00182   0.00000
   O      0.00000   1.93300   2.32738  -0.01160   0.00805  -0.00000
PRIMCOORD   10
      5   1
   Ti     1.93300   1.93300   1.96486   0.00202   0.01283  -0.00000
   Pb     0.00000   0.00000   3.90963  -0.00022  -0.00143   0.00000
   O      1.93300   1.93300   0.19819  -0.01299  -0.08267  -0.00000
   O      1.93300   0.00000   2.32738   0.00805   0.01160  -0.00000
   O      0.00000   1.93300   2.32738   0.00182   0.05122   0.00000
PRIMCOORD   11
      5   1
   Ti     1.93300   1.93300   1.96486   0.00000   0.00000  -0.00000
   Pb     0.00000   0.00000   3.90963  -0.00000  -0.00000  -0.00000
   O      1.93300   1.93300   0.19819  -0.00000  -0.00000  -0.00000
   O      1.93300   0.00000   2.32738   0.00000   0.00000   0.07071
   O      0.00000   1.93300   2.32738   0.00000   0.00000  -0.07071
PRIMCOORD   12
      5   1
   Ti     1.93300   1.93300   1.96486  -0.00000  -0.00000  -0.04287
   Pb     0.00000   0.00000   3.90963  -0.00000  -0.00000   0.00124
   O      1.93300   1.93300   0.19819  -0.00000  -0.00000  -0.01403
   O      1.93300   0.00000   2.32738  -0.00000   0.00000   0.06310
   O      0.00000   1.93300   2.32738   0.00000   0.00000   0.06310
PRIMCOORD   13
      5   1
   Ti     1.93300   1.93300   1.96486  -0.00114  -0.00620   0.00000
   Pb     0.00000   0.00000   3.90963  -0.00008  -0.00045   0.00000
   O      1.93300   1.93300   0.19819  -0.00327  -0.01784  -0.00000
   O      1.93300   0.00000   2.32738  -0.00802   0.08603  -0.00000
   O      0.00000   1.93300   2.32738   0.01576  -0.04379  -0.00000
PRIMCOORD   14
      5   1
   Ti     1.93300   1.93300   1.96486   0.00620  -0.00114  -0.00000
   Pb     0.00000   0.00000   3.90963   0.00045  -0.00008   0.00000
   O      1.93300   1.93300   0.19819   0.01784  -0.00327  -0.00000
   O      1.93300   0.00000   2.32738   0.04379   0.01576   0.00000
   O      0.00000   1.93300   2.32738  -0.08603  -0.00802   0.00000
PRIMCOORD   15
      5   1
   Ti     1.93300   1.93300   1.96486  -0.00000   0.00000   0.02531
   Pb     0.00000   0.00000   3.90963  -0.00000   0.00000  -0.00094
   O      1.93300   1.93300   0.19819  -0.00000   0.00000  -0.09427
   O      1.93300   0.00000   2.32738  -0.00000  -0.00000   0.01536
   O      0.00000   1.93300   2.32738   0.00000   0.00000   0.01536
